BmimBr
 26 atoms
 25 bonds
 45 angles
 59 dihedrals
 5 impropers
 9 atom types
 9 bond types
 15 angle types
 22 dihedral types
 3 improper types
 -8.000000 6.000000  xlo xhi
 -4.000000 8.000000  ylo yhi
 -6.000000 8.000000  zlo zhi

 Masses

 1  79.904     #Br
 2  12.011     #CR
 3  12.011     #CT
 4  12.011     #CW
 5   1.008    #H1
 6   1.008    #H4
 7   1.008    #H5
 8   1.008    #HC
 9  14.0067     #NA

 Pair Coeffs

 1   0.8600 3.9700    #Br
 2   0.0700 3.5500    #CR
 3   0.0656 3.5000    #CT
 4   0.0700 3.5500    #CW
 5   0.0300 2.4200    #H1
 6   0.0300 2.4200    #H4
 7   0.0300 2.4200    #H5
 8   0.0300 2.4200    #HC
 9   0.1700 3.2500    #NA

 Bond Coeffs

 1  340.000   1.090       #CT-H1
 2  520.080   1.341       #CW-CW
 3  477.020   1.315       #CR-NA
 4  427.100   1.378       #CW-NA
 5  340.000   1.090       #CT-HC
 6  267.930   1.529       #CT-CT
 7  340.000   1.080       #CW-H4
 8  337.000   1.466       #CT-NA
 9  340.000   1.080       #CR-H5

 Angle Coeffs

 1    37.500    110.7     #H1-CT-NA
 2    37.500    110.7     #CT-CT-H1
 3    35.002    130.9     #CW-CW-H4
 4    37.500    110.7     #CT-CT-HC
 5    35.002    125.1     #H5-CR-NA
 6    70.005    109.8     #NA-CR-NA
 7    70.005    126.4     #CR-NA-CT
 8    70.005    107.1     #CW-CW-NA
 9    58.353    112.7     #CT-CT-CT
 10   58.353    112.7     #CT-CT-NA
 11   70.005    108.0     #CR-NA-CW
 12   70.005    125.6     #CT-NA-CW
 13   32.994    107.8     #H1-CT-H1
 14   32.994    107.8     #HC-CT-HC
 15   35.002    122.0     #H4-CW-NA

 Dihedral Coeffs

 1       0.0000     0.0000      0.3180      0.0000       #H1-CT-CT-HC
 2       0.0000     2.9995      0.0000      0.0000       #H4-CW-NA-CR
 3       0.0000     0.0000      0.3180      0.0000       #HC-CT-CT-HC
 4       0.0000     2.9995      0.0000      0.0000       #H4-CW-NA-CT
 5       0.0000     0.0000      0.0000      0.0000       #H1-CT-NA-CR
 6       0.0000     0.0000      0.3659      0.0000       #CT-CT-CT-H1
 7       0.0000     0.0000      0.3659      0.0000       #CT-CT-CT-HC
 8       0.0000     0.0000      0.0877      0.0000       #HC-CT-CT-NA
 9       0.0000     4.6510      0.0000      0.0000       #H5-CR-NA-CT
 10      0.0000     2.9995      0.0000      0.0000       #CW-CW-NA-CR
 11      0.0000     0.0000      0.1240      0.0000       #H1-CT-NA-CW
 12      0.0000    10.7504      0.0000      0.0000       #NA-CW-CW-NA
 13      0.0000     4.6510      0.0000      0.0000       #NA-CR-NA-CT
 14      0.0000     2.9995      0.0000      0.0000       #CW-CW-NA-CT
 15     -1.2593     0.0000      0.0000      0.0000       #CT-CT-NA-CR
 16      0.0000     4.6510      0.0000      0.0000       #H5-CR-NA-CW
 17      1.7399    -0.1570      0.2789      0.0000       #CT-CT-CT-CT
 18     -1.7876     0.7562     -0.2874      0.0000       #CT-CT-CT-NA
 19      0.0000    10.7504      0.0000      0.0000       #H4-CW-CW-H4
 20      0.0000     4.6510      0.0000      0.0000       #NA-CR-NA-CW
 21      0.0000    10.7504      0.0000      0.0000       #H4-CW-CW-NA
 22     -1.7097     1.4594      0.1897      0.0000       #CT-CT-NA-CW

 Improper Coeffs

 1  4.0000   180.0     #CR-CT-NA-CW
 2  2.1997   180.0     #NA-CW-H4-CW
 3  2.1997   180.0     #NA-CR-NA-H5

 Atoms

1 1 2        -0.008719            0.000000 0.000000 0.000000 # CR 
2 1 9         0.157785            0.000000 0.000000 1.440000 # NA 
3 1 9         0.103349            1.357647 0.000000 -0.479995 # NA 
4 1 4        -0.203309            2.262739 0.000000 0.640009 # CW 
5 1 4        -0.218759            1.503250 0.000000 1.875191 # CW 
6 1 6         0.257715            3.289460 0.000000 0.277013 # H4 
7 1 6         0.258695            1.566420 0.000000 2.962357 # H4 
8 1 7         0.206529            -0.827724 0.000000 -0.707668 # H5 
9 1 3        -0.208085            2.111899 0.000000 -1.706659 # CT 
10 1 5        0.142632            1.427423 0.000000 -2.553661 # H1 
11 1 5        0.142632            2.739338 0.889165 -1.746990 # H1 
12 1 5        0.142632            2.739338 -0.889165 -1.746990 # H1 
13 1 3       -0.211974            -0.838604 0.000000 2.610617 # CT 
14 1 3       -0.012846            -2.231412 0.000000 2.207399 # CT 
15 1 5        0.127565            -0.632677 -0.889165 3.204672 # H1 
16 1 5        0.127565            -0.632677 0.889165 3.204672 # H1 
17 1 3        0.156315            -3.075839 0.000000 3.386145 # CT 
18 1 8        0.039980            -2.437338 0.889165 1.613344 # HC 
19 1 8        0.039980            -2.437338 -0.889165 1.613344 # HC 
20 1 3       -0.189428            -4.468648 0.000000 2.982927 # CT 
21 1 8        0.005084            -2.869913 -0.889165 3.980200 # HC 
22 1 8        0.005084            -2.869913 0.889165 3.980200 # HC 
23 1 8        0.046526            -5.102841 0.000000 3.868206 # HC 
24 1 8        0.046526            -4.674574 0.889165 2.388872 # HC 
25 1 8        0.046526            -4.674574 -0.889165 2.388872 # HC 
26 2 1       -1.000000            0.000000 5.000000 0.000000 # Br 

 Bonds

1 3 1 2
2 3 1 3
3 9 1 8
4 4 2 5
5 8 2 13
6 8 3 9
7 4 3 4
8 7 4 6
9 2 4 5
10 7 5 7
11 1 9 11
12 1 9 12
13 1 9 10
14 6 13 14
15 1 13 15
16 1 13 16
17 5 14 18
18 5 14 19
19 6 14 17
20 6 17 20
21 5 17 21
22 5 17 22
23 5 20 23
24 5 20 24
25 5 20 25

 Angles

1 6 2 1 3
2 5 2 1 8
3 5 3 1 8
4 11 1 2 5
5 7 1 2 13
6 12 5 2 13
7 7 1 3 9
8 11 1 3 4
9 12 4 3 9
10 15 3 4 6
11 8 3 4 5
12 3 5 4 6
13 8 2 5 4
14 15 2 5 7
15 3 4 5 7
16 1 3 9 11
17 1 3 9 12
18 1 3 9 10
19 13 11 9 12
20 13 10 9 11
21 13 10 9 12
22 10 2 13 14
23 1 2 13 15
24 1 2 13 16
25 2 14 13 15
26 2 14 13 16
27 13 15 13 16
28 4 13 14 18
29 4 13 14 19
30 9 13 14 17
31 14 18 14 19
32 4 17 14 18
33 4 17 14 19
34 9 14 17 20
35 4 14 17 21
36 4 14 17 22
37 4 20 17 21
38 4 20 17 22
39 14 21 17 22
40 4 17 20 23
41 4 17 20 24
42 4 17 20 25
43 14 23 20 24
44 14 23 20 25
45 14 24 20 25

 Dihedrals

1 20 3 1 2 5
2 13 3 1 2 13
3 16 8 1 2 5
4 9 8 1 2 13
5 13 2 1 3 9
6 20 2 1 3 4
7 9 8 1 3 9
8 16 8 1 3 4
9 10 1 2 5 4
10 2 1 2 5 7
11 14 13 2 5 4
12 4 13 2 5 7
13 15 1 2 13 14
14 5 1 2 13 15
15 5 1 2 13 16
16 22 5 2 13 14
17 11 5 2 13 15
18 11 5 2 13 16
19 5 1 3 9 11
20 5 1 3 9 12
21 5 1 3 9 10
22 11 4 3 9 11
23 11 4 3 9 12
24 11 4 3 9 10
25 2 1 3 4 6
26 10 1 3 4 5
27 4 9 3 4 6
28 14 9 3 4 5
29 12 3 4 5 2
30 21 3 4 5 7
31 21 6 4 5 2
32 19 6 4 5 7
33 8 2 13 14 18
34 8 2 13 14 19
35 18 2 13 14 17
36 1 15 13 14 18
37 1 15 13 14 19
38 6 15 13 14 17
39 1 16 13 14 18
40 1 16 13 14 19
41 6 16 13 14 17
42 17 13 14 17 20
43 7 13 14 17 21
44 7 13 14 17 22
45 7 18 14 17 20
46 3 18 14 17 21
47 3 18 14 17 22
48 7 19 14 17 20
49 3 19 14 17 21
50 3 19 14 17 22
51 7 14 17 20 23
52 7 14 17 20 24
53 7 14 17 20 25
54 3 21 17 20 23
55 3 21 17 20 24
56 3 21 17 20 25
57 3 22 17 20 23
58 3 22 17 20 24
59 3 22 17 20 25

 Impropers

1 3 3 1 2 8
2 1 5 2 13 1
3 1 4 3 9 1
4 2 3 4 6 5
5 2 2 5 7 4

